name;SMILES;logIE;pH.aq.;polarity_index;viscosity;surface_tension;NH4;data_type
2,4-dinitrophenol;Oc1ccc(cc1[N+]([O-])=O)[N+]([O-])=O;1.57;7;8.16;1.61;34.974592;0;non-PFAS
3-nitrophenol;Oc1cccc(c1)[N+]([O-])=O;1.23;7;8.16;1.61;34.974592;0;non-PFAS
phthalimide;O=C1NC(=O)c2ccccc12;-0.87;7;8.16;1.61;34.974592;0;non-PFAS
4-aminobenzoic acid;Nc1ccc(cc1)C(O)=O;-0.28;7;8.16;1.61;34.974592;0;non-PFAS
2,4,6-trinitro-1,3-benzenediol;Oc1c(cc(c(O)c1[N+]([O-])=O)[N+]([O-])=O)[N+]([O-])=O;1.58;7;8.16;1.61;34.974592;0;non-PFAS
benzoic acid;OC(=O)c1ccccc1;0.34;7;7.14;1.53;29.957232;0;non-PFAS
4-nitrophenol;Oc1ccc(cc1)[N+]([O-])=O;1.46;7;7.14;1.53;29.957232;0;non-PFAS
3-(trifluoromethyl)phenol;Oc1cccc(c1)C(F)(F)F;1.87;7;7.14;1.53;29.957232;0;non-PFAS
salicylic acid;OC(=O)c1ccccc1O;1.21;7;7.14;1.53;29.957232;0;non-PFAS
sorbic acid;C/C=C/C=C/C(O)=O;-0.01;7;7.14;1.53;29.957232;0;non-PFAS
3-nitrobenzenesulfonic acid;O[S](=O)(=O)c1cccc(c1)[N+]([O-])=O;1.34;7;7.14;1.53;29.957232;0;non-PFAS
3,5-diiodosalicylic acid;OC(=O)c1cc(I)cc(I)c1O;1.6;7;7.14;1.53;29.957232;0;non-PFAS
4-phenylphenol;Oc1ccc(cc1)c2ccccc2;0.34;7;7.14;1.53;29.957232;0;non-PFAS
4-hydroxybenzoic acid;OC(=O)c1ccc(O)cc1;0.28;7;7.14;1.53;29.957232;0;non-PFAS
3,5-dinitrobenzoic acid;OC(=O)c1cc(cc(c1)[N+]([O-])=O)[N+]([O-])=O;1.37;7;7.14;1.53;29.957232;0;non-PFAS
naphthalenesulfonic acid;O[S](=O)(=O)c1cccc2ccccc12;1.03;7;7.14;1.53;29.957232;0;non-PFAS
4-(pentafluorophenyl)-2,3,5,6-tetrafluorophenol;Oc1c(F)c(F)c(c(F)c1F)c2c(F)c(F)c(F)c(F)c2F;2.12;7;7.14;1.53;29.957232;0;non-PFAS
2,4-dinitrophenol;Oc1ccc(cc1[N+]([O-])=O)[N+]([O-])=O;1.7;7;7.14;1.53;29.957232;0;non-PFAS
3-nitrophenol;Oc1cccc(c1)[N+]([O-])=O;1.4;7;7.14;1.53;29.957232;0;non-PFAS
phthalimide;O=C1NC(=O)c2ccccc12;-0.73;7;7.14;1.53;29.957232;0;non-PFAS
4-aminobenzoic acid;Nc1ccc(cc1)C(O)=O;-0.11;7;7.14;1.53;29.957232;0;non-PFAS
2,4,6-trinitro-1,3-benzenediol;Oc1c(cc(c(O)c1[N+]([O-])=O)[N+]([O-])=O)[N+]([O-])=O;1.52;7;7.14;1.53;29.957232;0;non-PFAS
benzoic acid;OC(=O)c1ccccc1;0.55;7;7.14;1.53;29.957232;0;non-PFAS
4-nitrophenol;Oc1ccc(cc1)[N+]([O-])=O;1.69;7;6.12;1.16;27.309248;0;non-PFAS
3-(trifluoromethyl)phenol;Oc1cccc(c1)C(F)(F)F;2.24;7;6.12;1.16;27.309248;0;non-PFAS
salicylic acid;OC(=O)c1ccccc1O;1.33;7;6.12;1.16;27.309248;0;non-PFAS
sorbic acid;C/C=C/C=C/C(O)=O;0.21;7;6.12;1.16;27.309248;0;non-PFAS
3-nitrobenzenesulfonic acid;O[S](=O)(=O)c1cccc(c1)[N+]([O-])=O;1.35;7;6.12;1.16;27.309248;0;non-PFAS
3,5-diiodosalicylic acid;OC(=O)c1cc(I)cc(I)c1O;1.77;7;6.12;1.16;27.309248;0;non-PFAS
4-phenylphenol;Oc1ccc(cc1)c2ccccc2;0.67;7;6.12;1.16;27.309248;0;non-PFAS
4-hydroxybenzoic acid;OC(=O)c1ccc(O)cc1;0.41;7;6.12;1.16;27.309248;0;non-PFAS
3,5-dinitrobenzoic acid;OC(=O)c1cc(cc(c1)[N+]([O-])=O)[N+]([O-])=O;1.42;7;6.12;1.16;27.309248;0;non-PFAS
naphthalenesulfonic acid;O[S](=O)(=O)c1cccc2ccccc12;1.17;7;6.12;1.16;27.309248;0;non-PFAS
4-(pentafluorophenyl)-2,3,5,6-tetrafluorophenol;Oc1c(F)c(F)c(c(F)c1F)c2c(F)c(F)c(F)c(F)c2F;2.31;7;6.12;1.16;27.309248;0;non-PFAS
2,4-dinitrophenol;Oc1ccc(cc1[N+]([O-])=O)[N+]([O-])=O;1.78;7;6.12;1.16;27.309248;0;non-PFAS
3-nitrophenol;Oc1cccc(c1)[N+]([O-])=O;1.58;7;6.12;1.16;27.309248;0;non-PFAS
phthalimide;O=C1NC(=O)c2ccccc12;-0.45;7;6.12;1.16;27.309248;0;non-PFAS
4-aminobenzoic acid;Nc1ccc(cc1)C(O)=O;0.05;7;6.12;1.16;27.309248;0;non-PFAS
2,4,6-trinitro-1,3-benzenediol;Oc1c(cc(c(O)c1[N+]([O-])=O)[N+]([O-])=O)[N+]([O-])=O;1.48;7;6.12;1.16;27.309248;0;non-PFAS
benzoic acid;OC(=O)c1ccccc1;0.65;7;5.1;0.51;22.12;0;non-PFAS
4-nitrophenol;Oc1ccc(cc1)[N+]([O-])=O;1.89;7;5.1;0.51;22.12;0;non-PFAS
3-(trifluoromethyl)phenol;Oc1cccc(c1)C(F)(F)F;2.63;7;5.1;0.51;22.12;0;non-PFAS
salicylic acid;OC(=O)c1ccccc1O;1.58;7;5.1;0.51;22.12;0;non-PFAS
sorbic acid;C/C=C/C=C/C(O)=O;0.36;7;5.1;0.51;22.12;0;non-PFAS
3-nitrobenzenesulfonic acid;O[S](=O)(=O)c1cccc(c1)[N+]([O-])=O;1.51;7;5.1;0.51;22.12;0;non-PFAS
3,5-diiodosalicylic acid;OC(=O)c1cc(I)cc(I)c1O;2.14;7;5.1;0.51;22.12;0;non-PFAS
4-phenylphenol;Oc1ccc(cc1)c2ccccc2;0.98;7;5.1;0.51;22.12;0;non-PFAS
4-hydroxybenzoic acid;OC(=O)c1ccc(O)cc1;0.51;7;5.1;0.51;22.12;0;non-PFAS
3,5-dinitrobenzoic acid;OC(=O)c1cc(cc(c1)[N+]([O-])=O)[N+]([O-])=O;1.68;7;5.1;0.51;22.12;0;non-PFAS
naphthalenesulfonic acid;O[S](=O)(=O)c1cccc2ccccc12;1.64;7;5.1;0.51;22.12;0;non-PFAS
4-(pentafluorophenyl)-2,3,5,6-tetrafluorophenol;Oc1c(F)c(F)c(c(F)c1F)c2c(F)c(F)c(F)c(F)c2F;2.73;7;5.1;0.51;22.12;0;non-PFAS
2,4-dinitrophenol;Oc1ccc(cc1[N+]([O-])=O)[N+]([O-])=O;2.12;7;5.1;0.51;22.12;0;non-PFAS
3-nitrophenol;Oc1cccc(c1)[N+]([O-])=O;1.69;7;5.1;0.51;22.12;0;non-PFAS
phthalimide;O=C1NC(=O)c2ccccc12;0.38;7;5.1;0.51;22.12;0;non-PFAS
4-aminobenzoic acid;Nc1ccc(cc1)C(O)=O;0.37;7;5.1;0.51;22.12;0;non-PFAS
2,4,6-trinitro-1,3-benzenediol;Oc1c(cc(c(O)c1[N+]([O-])=O)[N+]([O-])=O)[N+]([O-])=O;1.18;7;5.1;0.51;22.12;0;non-PFAS
salicylic acid;OC(=O)c1ccccc1O;0.61;10.5;6.68;0.57;32.18706944;1;non-PFAS
lincomycin;CCCC1CC(N(C)C1)C(=O)NC(C(C)O)C2OC(SC)C(O)C(O)C2O;0.36;10.5;6.68;0.57;32.18706944;1;non-PFAS
warfarin;CC(=O)CC(c1ccccc1)C2=C(O)Oc3ccccc3C2=O;1.92;10.5;6.68;0.57;32.18706944;1;non-PFAS
naproxen;COc1ccc2cc(ccc2c1)C(C)C(O)=O;0.22;10.5;6.68;0.57;32.18706944;1;non-PFAS
fumaric acid;OC(=O)/C=C/C(O)=O;-1.08;10.5;6.68;0.57;32.18706944;1;non-PFAS
dodecanoic acid;CCCCCCCCCCCC(O)=O;0.43;10.5;6.68;0.57;32.18706944;1;non-PFAS
taurocholic acid;C[C@H](CCC(=O)NCC[S](O)(=O)=O)[C@H]1CC[C@H]2[C@@H]3[C@H](O)C[C@@H]4C[C@H](O)CC[C@]4(C)[C@H]3C[C@H](O)[C@]12C;1.74;10.5;6.68;0.57;32.18706944;1;non-PFAS
sorbic acid;C/C=C/C=C/C(O)=O;-0.65;10.5;6.68;0.57;32.18706944;1;non-PFAS
3-trifluoromethylsulfonylbenzoic acid;OC(=O)c1cccc(c1)[S](=O)(=O)C(F)(F)F;1.49;10.5;6.68;0.57;32.18706944;1;non-PFAS